# Probe 0 (0.012 0 0.037699)
# Probe 1 (0.012097 0 0.037699)
# Probe 2 (0.012198 0 0.037699)
# Probe 3 (0.012304 0 0.037699)
# Probe 4 (0.012416 0 0.037699)
# Probe 5 (0.012534 0 0.037699)
# Probe 6 (0.012657 0 0.037699)
# Probe 7 (0.012786 0 0.037699)
# Probe 8 (0.012922 0 0.037699)
# Probe 9 (0.013065 0 0.037699)
# Probe 10 (0.013215 0 0.037699)
# Probe 11 (0.013372 0 0.037699)
# Probe 12 (0.013537 0 0.037699)
# Probe 13 (0.013711 0 0.037699)
# Probe 14 (0.013893 0 0.037699)
# Probe 15 (0.014084 0 0.037699)
# Probe 16 (0.014285 0 0.037699)
# Probe 17 (0.014496 0 0.037699)
# Probe 18 (0.014717 0 0.037699)
# Probe 19 (0.01495 0 0.037699)
# Probe 20 (0.015194 0 0.037699)
# Probe 21 (0.01545 0 0.037699)
# Probe 22 (0.015719 0 0.037699)
# Probe 23 (0.016002 0 0.037699)
# Probe 24 (0.016298 0 0.037699)
# Probe 25 (0.01661 0 0.037699)
# Probe 26 (0.016937 0 0.037699)
# Probe 27 (0.01728 0 0.037699)
# Probe 28 (0.017641 0 0.037699)
# Probe 29 (0.01802 0 0.037699)
# Probe 30 (0.018417 0 0.037699)
# Probe 31 (0.018835 0 0.037699)
# Probe 32 (0.019273 0 0.037699)
# Probe 33 (0.019733 0 0.037699)
# Probe 34 (0.020216 0 0.037699)
# Probe 35 (0.020724 0 0.037699)
# Probe 36 (0.021257 0 0.037699)
# Probe 37 (0.021816 0 0.037699)
# Probe 38 (0.022403 0 0.037699)
# Probe 39 (0.02302 0 0.037699)
# Probe 40 (0.023668 0 0.037699)
# Probe 41 (0.024348 0 0.037699)
# Probe 42 (0.025062 0 0.037699)
# Probe 43 (0.025811 0 0.037699)
# Probe 44 (0.026599 0 0.037699)
# Probe 45 (0.027425 0 0.037699)
# Probe 46 (0.028293 0 0.037699)
# Probe 47 (0.029204 0 0.037699)
# Probe 48 (0.030161 0 0.037699)
# Probe 49 (0.031166 0 0.037699)
# Probe 50 (0.03222 0 0.037699)
# Probe 51 (0.033328 0 0.037699)
# Probe 52 (0.034491 0 0.037699)
# Probe 53 (0.035712 0 0.037699)
# Probe 54 (0.036994 0 0.037699)
# Probe 55 (0.038341 0 0.037699)
# Probe 56 (0.039754 0 0.037699)
# Probe 57 (0.041239 0 0.037699)
# Probe 58 (0.042797 0 0.037699)
# Probe 59 (0.044434 0 0.037699)
# Probe 60 (0.046152 0 0.037699)
# Probe 61 (0.047956 0 0.037699)
# Probe 62 (0.04985 0 0.037699)
# Probe 63 (0.05184 0 0.037699)
# Probe 64 (0.053928 0 0.037699)
# Probe 65 (0.056121 0 0.037699)
# Probe 66 (0.058424 0 0.037699)
# Probe 67 (0.060842 0 0.037699)
# Probe 68 (0.06338 0 0.037699)
# Probe 69 (0.066046 0 0.037699)
# Probe 70 (0.068845 0 0.037699)
# Probe 71 (0.071783 0 0.037699)
# Probe 72 (0.074869 0 0.037699)
# Probe 73 (0.078109 0 0.037699)
# Probe 74 (0.081511 0 0.037699)
# Probe 75 (0.085084 0 0.037699)
# Probe 76 (0.088834 0 0.037699)
# Probe 77 (0.092773 0 0.037699)
# Probe 78 (0.096908 0 0.037699)
# Probe 79 (0.10125 0 0.037699)
# Probe 80 (0.10581 0 0.037699)
# Probe 81 (0.1106 0 0.037699)
# Probe 82 (0.11562 0 0.037699)
# Probe 83 (0.1209 0 0.037699)
# Probe 84 (0.12644 0 0.037699)
# Probe 85 (0.13226 0 0.037699)
# Probe 86 (0.13837 0 0.037699)
# Probe 87 (0.14478 0 0.037699)
# Probe 88 (0.15152 0 0.037699)
# Probe 89 (0.15859 0 0.037699)
# Probe 90 (0.16602 0 0.037699)
# Probe 91 (0.17382 0 0.037699)
# Probe 92 (0.182 0 0.037699)
# Probe 93 (0.1906 0 0.037699)
# Probe 94 (0.19963 0 0.037699)
# Probe 95 (0.20911 0 0.037699)
# Probe 96 (0.21906 0 0.037699)
# Probe 97 (0.22951 0 0.037699)
# Probe 98 (0.24048 0 0.037699)
# Probe 99 (0.252 0 0.037699)
#       Probe             0             1             2             3             4             5             6             7             8             9            10            11            12            13            14            15            16            17            18            19            20            21            22            23            24            25            26            27            28            29            30            31            32            33            34            35            36            37            38            39            40            41            42            43            44            45            46            47            48            49            50            51            52            53            54            55            56            57            58            59            60            61            62            63            64            65            66            67            68            69            70            71            72            73            74            75            76            77            78            79            80            81            82            83            84            85            86            87            88            89            90            91            92            93            94            95            96            97            98            99
#        Time
