# Probe 0 (-0.24 0 0.037692)
# Probe 1 (0.24 0 0.037692)
#       Probe             0             1
#        Time
